Variables = mach, cp 
 zone t=Shockwave i= 200 f=point
5.000000000000000000e-01	1.467746199736264678e+01
5.477386934673367236e-01	5.136650384572996941e+00
5.954773869346733361e-01	2.736317519266184384e+00
6.432160804020100597e-01	1.846864304180438010e+00
6.909547738693466723e-01	1.466184406206016089e+00
7.386934673366833959e-01	1.297149186609494187e+00
7.864321608040201195e-01	1.226939470306784852e+00
8.341708542713568431e-01	1.205980038837001667e+00
8.819095477386934556e-01	1.210326224252629146e+00
9.296482412060300682e-01	1.227651844868505870e+00
9.773869346733667918e-01	1.251334666593113765e+00
1.025125628140703515e+00	1.277721909114885479e+00
1.072864321608040239e+00	1.304775825458537541e+00
1.120603015075376963e+00	1.331365991590809150e+00
1.168341708542713686e+00	1.356883587938235269e+00
1.216080402010050188e+00	1.381024022165683096e+00
1.263819095477386911e+00	1.403661145683148259e+00
1.311557788944723635e+00	1.424772972219330303e+00
1.359296482412060136e+00	1.444397153816852963e+00
1.407035175879396860e+00	1.462604040099535041e+00
1.454773869346733584e+00	1.479480318420177465e+00
1.502512562814070307e+00	1.495119113544055578e+00
1.550251256281407031e+00	1.509614073330992845e+00
1.597989949748743754e+00	1.523055931186490408e+00
1.645728643216080478e+00	1.535530611748422647e+00
1.693467336683416979e+00	1.547118295987763403e+00
1.741206030150753703e+00	1.557893077554049377e+00
1.788944723618090427e+00	1.567922976903219912e+00
1.836683417085427150e+00	1.577270164807283770e+00
1.884422110552763874e+00	1.585991301035599488e+00
1.932160804020100375e+00	1.594137928757009881e+00
1.979899497487437099e+00	1.601756887612207247e+00
2.027638190954773822e+00	1.608890722873988821e+00
2.075376884422110546e+00	1.615578077452976657e+00
2.123115577889447270e+00	1.621854059511256274e+00
2.170854271356783549e+00	1.627750582273599145e+00
2.218592964824120273e+00	1.633296675027884781e+00
2.266331658291456996e+00	1.638518765775651032e+00
2.314070351758793720e+00	1.643440936854300594e+00
2.361809045226130443e+00	1.648085155318086192e+00
2.409547738693467167e+00	1.652471480077416732e+00
2.457286432160803891e+00	1.656618247848576475e+00
2.505025125628140614e+00	1.660542239920810070e+00
2.552763819095477338e+00	1.664258831645462067e+00
2.600502512562814061e+00	1.667782126419149469e+00
2.648241206030150785e+00	1.671125075786848324e+00
2.695979899497487509e+00	1.674299587142167089e+00
2.743718592964824232e+00	1.677316620357608867e+00
2.791457286432160956e+00	1.680186274541018765e+00
2.839195979899497235e+00	1.682917865987851425e+00
2.886934673366833959e+00	1.685519998283102394e+00
2.934673366834170682e+00	1.688000625401849808e+00
2.982412060301507406e+00	1.690367108563063159e+00
3.030150753768844130e+00	1.692626267506875282e+00
3.077889447236180853e+00	1.694784426790329590e+00
3.125628140703517577e+00	1.696847457629746758e+00
3.173366834170854300e+00	1.698820815758509628e+00
3.221105527638191024e+00	1.700709575716585098e+00
3.268844221105527748e+00	1.702518461941580741e+00
3.316582914572864027e+00	1.704251876990040993e+00
3.364321608040200751e+00	1.705913927181344603e+00
3.412060301507537474e+00	1.707508445924417861e+00
3.459798994974874198e+00	1.709039014959081504e+00
3.507537688442210921e+00	1.710508983718696641e+00
3.555276381909547645e+00	1.711921486998551956e+00
3.603015075376884369e+00	1.713279461094705747e+00
3.650753768844221092e+00	1.714585658560599635e+00
3.698492462311557816e+00	1.715842661713221418e+00
3.746231155778894539e+00	1.717052895006914603e+00
3.793969849246231263e+00	1.718218636380709929e+00
3.841708542713567542e+00	1.719342027674221063e+00
3.889447236180904266e+00	1.720425084197498622e+00
3.937185929648240990e+00	1.721469703531653295e+00
3.984924623115577713e+00	1.722477673629397854e+00
4.032663316582913993e+00	1.723450680277820002e+00
4.080402010050251604e+00	1.724390313979621281e+00
4.128140703517587440e+00	1.725298076303571460e+00
4.175879396984925052e+00	1.726175385750069458e+00
4.223618090452260887e+00	1.727023583173332266e+00
4.271356783919598499e+00	1.727843936797799129e+00
4.319095477386934334e+00	1.728637646862839272e+00
4.366834170854271058e+00	1.729405849926677119e+00
4.414572864321607781e+00	1.730149622857619418e+00
4.462311557788944505e+00	1.730869986538114080e+00
4.510050251256281229e+00	1.731567909304857933e+00
4.557788944723617952e+00	1.732244310146096478e+00
4.605527638190954676e+00	1.732900061675407333e+00
4.653266331658291399e+00	1.733535992899518430e+00
4.701005025125628123e+00	1.734152891796235219e+00
4.748743718592964846e+00	1.734751507717141816e+00
4.796482412060301570e+00	1.735332553628466501e+00
4.844221105527638294e+00	1.735896708202408156e+00
4.891959798994975017e+00	1.736444617770154908e+00
4.939698492462311741e+00	1.736976898146907589e+00
4.987437185929648464e+00	1.737494136338350481e+00
5.035175879396985188e+00	1.737996892137268601e+00
5.082914572864321912e+00	1.738485699618260938e+00
5.130653266331657747e+00	1.738961068537911547e+00
5.178391959798994471e+00	1.739423485647143774e+00
5.226130653266331194e+00	1.739873415921975530e+00
5.273869346733667918e+00	1.740311303718401703e+00
5.321608040201004641e+00	1.740737573856693032e+00
5.369346733668341365e+00	1.741152632639960451e+00
5.417085427135678088e+00	1.741556868811499514e+00
5.464824120603014812e+00	1.741950654455063363e+00
5.512562814070351536e+00	1.742334345841911825e+00
5.560301507537688259e+00	1.742708284228180249e+00
5.608040201005024983e+00	1.743072796605872110e+00
5.655778894472361706e+00	1.743428196410517605e+00
5.703517587939698430e+00	1.743774784188319549e+00
5.751256281407035154e+00	1.744112848225412682e+00
5.798994974874371877e+00	1.744442665141673565e+00
5.846733668341708601e+00	1.744764500451320366e+00
5.894472361809045324e+00	1.745078609092429289e+00
5.942211055276382048e+00	1.745385235927289891e+00
5.989949748743718771e+00	1.745684616215431362e+00
6.037688442211055495e+00	1.745976976061008434e+00
6.085427135678392219e+00	1.746262532836104997e+00
6.133165829145728054e+00	1.746541495581441783e+00
6.180904522613064778e+00	1.746814065385836612e+00
6.228643216080401501e+00	1.747080435745695715e+00
6.276381909547738225e+00	1.747340792905735407e+00
6.324120603015074948e+00	1.747595316182029457e+00
6.371859296482411672e+00	1.747844178268427529e+00
6.419597989949748396e+00	1.748087545527308606e+00
6.467336683417085119e+00	1.748325578265587099e+00
6.515075376884421843e+00	1.748558430996802304e+00
6.562814070351758566e+00	1.748786252690100129e+00
6.610552763819095290e+00	1.749009187006840937e+00
6.658291457286432014e+00	1.749227372525531843e+00
6.706030150753768737e+00	1.749440942955737599e+00
6.753768844221105461e+00	1.749650027341583369e+00
6.801507537688442184e+00	1.749854750255417146e+00
6.849246231155778908e+00	1.750055231982172055e+00
6.896984924623115631e+00	1.750251588694945237e+00
6.944723618090452355e+00	1.750443932622251397e+00
6.992462311557789079e+00	1.750632372207407084e+00
7.040201005025125802e+00	1.750817012260466710e+00
7.087939698492462526e+00	1.750997954103100884e+00
7.135678391959798361e+00	1.751175295706790314e+00
7.183417085427135085e+00	1.751349131824684768e+00
7.231155778894471808e+00	1.751519554117451971e+00
7.278894472361808532e+00	1.751686651273435258e+00
7.326633165829145256e+00	1.751850509123412225e+00
7.374371859296481979e+00	1.752011210750211490e+00
7.422110552763818703e+00	1.752168836593474888e+00
7.469849246231155426e+00	1.752323464549790266e+00
7.517587939698492150e+00	1.752475170068429788e+00
7.565326633165828873e+00	1.752624026242922239e+00
7.613065326633165597e+00	1.752770103898655396e+00
7.660804020100502321e+00	1.752913471676700308e+00
7.708542713567839044e+00	1.753054196114059327e+00
7.756281407035175768e+00	1.753192341720492875e+00
7.804020100502512491e+00	1.753327971052093925e+00
7.851758793969849215e+00	1.753461144781780945e+00
7.899497487437185939e+00	1.753591921766833206e+00
7.947236180904522662e+00	1.753720359113630556e+00
7.994974874371859386e+00	1.753846512239710442e+00
8.042713567839196998e+00	1.753970434933285194e+00
8.090452261306532833e+00	1.754092179410321251e+00
8.138190954773868668e+00	1.754211796369308018e+00
8.185929648241206280e+00	1.754329335043814941e+00
8.233668341708542115e+00	1.754444843252937147e+00
8.281407035175877951e+00	1.754558367449729595e+00
8.329145728643215563e+00	1.754669952767722085e+00
8.376884422110553174e+00	1.754779643065593309e+00
8.424623115577889010e+00	1.754887480970094948e+00
8.472361809045224845e+00	1.754993507917306461e+00
8.520100502512562457e+00	1.755097764192276033e+00
8.567839195979900069e+00	1.755200288967144528e+00
8.615577889447235904e+00	1.755301120337797949e+00
8.663316582914571740e+00	1.755400295359123231e+00
8.711055276381909351e+00	1.755497850078926003e+00
8.758793969849245187e+00	1.755593819570568481e+00
8.806532663316582799e+00	1.755688237964374343e+00
8.854271356783918634e+00	1.755781138477871650e+00
8.902010050251256246e+00	1.755872553444896456e+00
8.949748743718592081e+00	1.755962514343637926e+00
8.997487437185929693e+00	1.756051051823636744e+00
9.045226130653265528e+00	1.756138195731801854e+00
9.092964824120603140e+00	1.756223975137483517e+00
9.140703517587938975e+00	1.756308418356629097e+00
9.188442211055276587e+00	1.756391552975077319e+00
9.236180904522612423e+00	1.756473405871012750e+00
9.283919597989950034e+00	1.756554003236620476e+00
9.331658291457285870e+00	1.756633370598970290e+00
9.379396984924623482e+00	1.756711532840171675e+00
9.427135678391959317e+00	1.756788514216804042e+00
9.474874371859296929e+00	1.756864338378689272e+00
9.522613065326632764e+00	1.756939028386992119e+00
9.570351758793970376e+00	1.757012606731702231e+00
9.618090452261306211e+00	1.757085095348518866e+00
9.665829145728643823e+00	1.757156515635144967e+00
9.713567839195979658e+00	1.757226888467034565e+00
9.761306532663315494e+00	1.757296234212605279e+00
9.809045226130653106e+00	1.757364572747929454e+00
9.856783919597988941e+00	1.757431923470937685e+00
9.904522613065326553e+00	1.757498305315150722e+00
9.952261306532662388e+00	1.757563736762936868e+00
1.000000000000000000e+01	1.757628235858355037e+00
