Variables = mach, p2_by_p1 
 zone t=flow i= 200 f=point
1.000000000000000000e+00	1.000000000000000000e+00
1.045226130653266416e+00	9.998902141084453632e-01
1.090452261306532611e+00	9.991927739273868125e-01
1.135678391959799027e+00	9.974879684912991706e-01
1.180904522613065222e+00	9.944948669092402715e-01
1.226130653266331638e+00	9.900364584568126514e-01
1.271356783919598055e+00	9.840148292468219315e-01
1.316582914572864471e+00	9.763928292823735866e-01
1.361809045226130666e+00	9.671800979183534652e-01
1.407035175879396860e+00	9.564221299626862738e-01
1.452261306532663276e+00	9.441915456897778114e-01
1.497487437185929693e+00	9.305810184994094403e-01
1.542713567839196109e+00	9.156974926310310625e-01
1.587939698492462304e+00	8.996574350879905646e-01
1.633165829145728720e+00	8.825829369334592389e-01
1.678391959798994915e+00	8.645985250241319253e-01
1.723618090452261331e+00	8.458285755474517220e-01
1.768844221105527748e+00	8.263952412723550855e-01
1.814070351758793942e+00	8.064168188474692966e-01
1.859296482412060358e+00	7.860064930537125072e-01
1.904522613065326553e+00	7.652714030569480741e-01
1.949748743718592969e+00	7.443119822896447912e-01
1.994974874371859386e+00	7.232215291581189920e-01
2.040201005025125802e+00	7.020859706490611973e-01
2.085427135678392219e+00	6.809837852870571639e-01
2.130653266331658635e+00	6.599860558826216028e-01
2.175879396984924607e+00	6.391566261674633820e-01
2.221105527638191024e+00	6.185523387717565269e-01
2.266331658291457440e+00	5.982233350736667621e-01
2.311557788944723413e+00	5.782134002538673601e-01
2.356783919597989829e+00	5.585603394250316933e-01
2.402010050251256246e+00	5.392963729862785272e-01
2.447236180904522662e+00	5.204485413851713815e-01
2.492462311557789079e+00	5.020391112668984857e-01
2.537688442211055495e+00	4.840859765654572100e-01
2.582914572864321912e+00	4.666030494603488066e-01
2.628140703517587884e+00	4.496006373007349621e-01
2.673366834170854300e+00	4.330858026041577435e-01
2.718592964824120717e+00	4.170627040857201040e-01
2.763819095477386689e+00	4.015329173827276721e-01
2.809045226130653106e+00	3.864957347252805930e-01
2.854271356783919522e+00	3.719484432803382701e-01
2.899497487437185939e+00	3.578865822794830009e-01
2.944723618090452355e+00	3.443041793421082186e-01
2.989949748743718771e+00	3.311939666377542446e-01
3.035175879396985188e+00	3.185475777045906343e-01
3.080402010050251160e+00	3.063557258650014270e-01
3.125628140703517577e+00	2.946083652622966120e-01
3.170854271356783993e+00	2.832948355920374417e-01
3.216080402010050410e+00	2.724039916237094294e-01
3.261306532663316826e+00	2.619243186089633690e-01
3.306532663316582799e+00	2.518440346560354426e-01
3.351758793969849215e+00	2.421511811202295417e-01
3.396984924623115631e+00	2.328337020207772723e-01
3.442211055276382048e+00	2.238795134477931659e-01
3.487437185929648464e+00	2.152765638716509500e-01
3.532663316582914881e+00	2.070128862128037817e-01
3.577889447236180853e+00	1.990766424743433405e-01
3.623115577889447270e+00	1.914561616836253921e-01
3.668341708542713686e+00	1.841399718340382408e-01
3.713567839195980103e+00	1.771168264641222456e-01
3.758793969849246519e+00	1.703757264593540599e-01
3.804020100502512491e+00	1.639059376123094269e-01
3.849246231155778908e+00	1.576970044299279561e-01
3.894472361809045324e+00	1.517387606323353233e-01
3.939698492462311741e+00	1.460213367462441514e-01
3.984924623115578157e+00	1.405351651573580885e-01
4.030150753768843686e+00	1.352709829504129269e-01
4.075376884422110990e+00	1.302198328324350729e-01
4.120603015075376518e+00	1.253730624043928321e-01
4.165829145728643823e+00	1.207223220185161400e-01
4.211055276381909351e+00	1.162595614330819010e-01
4.256281407035175768e+00	1.119770254532074794e-01
4.301507537688442184e+00	1.078672487250783713e-01
4.346733668341708601e+00	1.039230498318665652e-01
4.391959798994975017e+00	1.001375248222685643e-01
4.437185929648241434e+00	9.650404028694056779e-02
4.482412060301507850e+00	9.301622608401903525e-02
4.527638190954773378e+00	8.966796780224411956e-02
4.572864321608040683e+00	8.645339903884723121e-02
4.618090452261306211e+00	8.336689355919144062e-02
4.663316582914573516e+00	8.040305739606737334e-02
4.708542713567839044e+00	7.755672093845569770e-02
4.753768844221105461e+00	7.482293105235188202e-02
4.798994974874371877e+00	7.219694326986093869e-02
4.844221105527638294e+00	6.967421407709452341e-02
4.889447236180904710e+00	6.725039332639856648e-02
4.934673366834171127e+00	6.492131679401606792e-02
4.979899497487437543e+00	6.268299890040596178e-02
5.025125628140703959e+00	6.053162560702418649e-02
5.070351758793970376e+00	5.846354750039011589e-02
5.115577889447235904e+00	5.647527307165685351e-02
5.160804020100502321e+00	5.456346219763700406e-02
5.206030150753768737e+00	5.272491982727861570e-02
5.251256281407035154e+00	5.095658987588653349e-02
5.296482412060301570e+00	4.925554932793695800e-02
5.341708542713567986e+00	4.761900254808662525e-02
5.386934673366834403e+00	4.604427579892517858e-02
5.432160804020100819e+00	4.452881196312963308e-02
5.477386934673367236e+00	4.307016546693597653e-02
5.522613065326633652e+00	4.166599740122798462e-02
5.567839195979900069e+00	4.031407083603998770e-02
5.613065326633165597e+00	3.901224632386648267e-02
5.658291457286432014e+00	3.775847758685266231e-02
5.703517587939698430e+00	3.655080738269641388e-02
5.748743718592964846e+00	3.538736354391423117e-02
5.793969849246231263e+00	3.426635518499990957e-02
5.839195979899497679e+00	3.318606907193263206e-02
5.884422110552764096e+00	3.214486614845730311e-02
5.929648241206030512e+00	3.114117821356318649e-02
5.974874371859296929e+00	3.017350474462071261e-02
6.020100502512563345e+00	2.924040986069327205e-02
6.065326633165829762e+00	2.834051942062269444e-02
6.110552763819095290e+00	2.747251825058118213e-02
6.155778894472361706e+00	2.663514749589660294e-02
6.201005025125628123e+00	2.582720209207954587e-02
6.246231155778894539e+00	2.504752835011272299e-02
6.291457286432160956e+00	2.429502165120283469e-02
6.336683417085427372e+00	2.356862424633806435e-02
6.381909547738693789e+00	2.286732315614386016e-02
6.427135678391960205e+00	2.219014816667735923e-02
6.472361809045226622e+00	2.153616991695344804e-02
6.517587939698493038e+00	2.090449807414526337e-02
6.562814070351758566e+00	2.029427959255284894e-02
6.608040201005024983e+00	1.970469705258128326e-02
6.653266331658291399e+00	1.913496707611705289e-02
6.698492462311557816e+00	1.858433881483441061e-02
6.743718592964824232e+00	1.805209250810449820e-02
6.788944723618090649e+00	1.753753810731783352e-02
6.834170854271357065e+00	1.704001396356382564e-02
6.879396984924623482e+00	1.655888557574183503e-02
6.924623115577889898e+00	1.609354439630384520e-02
6.969849246231156314e+00	1.564340669195102285e-02
7.015075376884422731e+00	1.520791245672472800e-02
7.060301507537688259e+00	1.478652437504581960e-02
7.105527638190954676e+00	1.437872683236639249e-02
7.150753768844221092e+00	1.398402497120344520e-02
7.195979899497487509e+00	1.360194379042546989e-02
7.241206030150753925e+00	1.323202728576068112e-02
7.286432160804020342e+00	1.287383762958930686e-02
7.331658291457286758e+00	1.252695438817185217e-02
7.376884422110553174e+00	1.219097377455153133e-02
7.422110552763819591e+00	1.186550793545158682e-02
7.467336683417086007e+00	1.155018427056653425e-02
7.512562814070351536e+00	1.124464478272233468e-02
7.557788944723617952e+00	1.094854545745223284e-02
7.603015075376884369e+00	1.066155567060395569e-02
7.648241206030150785e+00	1.038335762265973038e-02
7.693467336683417201e+00	1.011364579851317322e-02
7.738693467336683618e+00	9.852126451507348115e-03
7.783919597989950034e+00	9.598517110594990617e-03
7.829145728643216451e+00	9.352546109536587909e-03
7.874371859296482867e+00	9.113952137104043214e-03
7.919597989949749284e+00	8.882483807306709375e-03
7.964824120603015700e+00	8.657899248704298625e-03
8.010050251256281229e+00	8.439965711915487293e-03
8.055276381909546757e+00	8.228459194474289570e-03
8.100502512562814061e+00	8.023164082226731664e-03
8.145728643216081366e+00	7.823872806499180751e-03
8.190954773869346894e+00	7.630385516306528726e-03
8.236180904522612423e+00	7.442509764903851993e-03
8.281407035175879727e+00	7.260060210018082390e-03
8.326633165829147032e+00	7.082858327128540438e-03
8.371859296482412560e+00	6.910732135195108740e-03
8.417085427135678088e+00	6.743515934261776722e-03
8.462311557788945393e+00	6.581050054390580328e-03
8.507537688442210921e+00	6.423180615407247419e-03
8.552763819095478226e+00	6.269759296964141394e-03
8.597989949748743754e+00	6.120643118450415539e-03
8.643216080402009283e+00	5.975694228300908704e-03
8.688442211055276587e+00	5.834779702277343057e-03
8.733668341708543892e+00	5.697771350315201239e-03
8.778894472361809420e+00	5.564545531549166396e-03
8.824120603015074948e+00	5.434982977148293364e-03
8.869346733668342253e+00	5.308968620609625169e-03
8.914572864321609558e+00	5.186391435175462770e-03
8.959798994974875086e+00	5.067144278055327883e-03
9.005025125628140614e+00	4.951123741148669329e-03
9.050251256281407919e+00	4.838230007978797965e-03
9.095477386934673447e+00	4.728366716561815432e-03
9.140703517587940752e+00	4.621440827947568240e-03
9.185929648241206280e+00	4.517362500181775799e-03
9.231155778894471808e+00	4.416044967450152153e-03
9.276381909547739113e+00	4.317404424176680272e-03
9.321608040201004641e+00	4.221359913858576535e-03
9.366834170854271946e+00	4.127833222430620820e-03
9.412060301507537474e+00	4.036748775961287138e-03
9.457286432160804779e+00	3.948033542491931683e-03
9.502512562814070307e+00	3.861616937839343084e-03
9.547738693467337612e+00	3.777430735189892062e-03
9.592964824120603140e+00	3.695408978321679597e-03
9.638190954773870445e+00	3.615487898298332548e-03
9.683417085427135973e+00	3.537605833485459993e-03
9.728643216080401501e+00	3.461703152747385055e-03
9.773869346733668806e+00	3.387722181688354595e-03
9.819095477386934334e+00	3.315607131808560089e-03
9.864321608040201639e+00	3.245304032451146875e-03
9.909547738693467167e+00	3.176760665422012023e-03
9.954773869346734472e+00	3.109926502169482049e-03
1.000000000000000000e+01	3.044752643416089467e-03
