Variables = mach, nu  
 zone t=Prandtl-Meyer i= 500 f=point
1.000000000000000000e+00	0.000000000000000000e+00
1.098196392785571129e+00	1.432790286201044205e+00
1.196392785571142259e+00	3.853932928552077808e+00
1.294589178356713388e+00	6.749987518429573008e+00
1.392785571142284518e+00	9.928842996467006188e+00
1.490981963927855647e+00	1.328160948997717306e+01
1.589178356713426776e+00	1.673817591070250188e+01
1.687374749498998128e+00	2.025026139301943928e+01
1.785571142284569035e+00	2.378322788860764803e+01
1.883767535070140386e+00	2.731156423885550666e+01
1.981963927855711294e+00	3.081616814846188390e+01
2.080160320641282645e+00	3.428260372843319459e+01
2.178356713426853553e+00	3.769992889703984673e+01
2.276553106212424904e+00	4.105987493952609668e+01
2.374749498997996255e+00	4.435625374276133925e+01
2.472945891783567163e+00	4.758451785777336340e+01
2.571142284569138070e+00	5.074142650058586668e+01
2.669338677354709422e+00	5.382478707991958800e+01
2.767535070140280773e+00	5.683325192509224877e+01
2.865731462925851680e+00	5.976615625982311286e+01
2.963927855711422588e+00	6.262338760750743916e+01
3.062124248496993939e+00	6.540527957009780380e+01
3.160320641282565290e+00	6.811252479968995033e+01
3.258517034068136198e+00	7.074610328659883862e+01
3.356713426853707549e+00	7.330722301235921634e+01
3.454909819639278457e+00	7.579727068355893493e+01
3.553106212424849808e+00	7.821777075278097868e+01
3.651302605210420715e+00	8.057035129927915307e+01
3.749498997995992067e+00	8.285671562012163349e+01
3.847695390781562974e+00	8.507861859686622097e+01
3.945891783567134325e+00	8.723784707035996178e+01
4.044088176352705233e+00	8.933620358891677427e+01
4.142284569138276140e+00	9.137549300143420794e+01
4.240480961923847936e+00	9.335751145311168386e+01
4.338677354709418843e+00	9.528403741183180387e+01
4.436873747494990639e+00	9.715682441130608993e+01
4.535070140280561546e+00	9.897759524527779718e+01
4.633266533066132453e+00	1.007480373873416823e+02
4.731462925851703361e+00	1.024697994447516436e+02
4.829659318637274268e+00	1.041444884831126387e+02
4.927855711422845175e+00	1.057736680829960818e+02
5.026052104208416971e+00	1.073588570100218078e+02
5.124248496993987878e+00	1.089015283973984083e+02
5.222444889779558785e+00	1.104031093547964275e+02
5.320641282565130581e+00	1.118649809301392395e+02
5.418837675350701488e+00	1.132884783617687248e+02
5.517034068136272396e+00	1.146748915677455187e+02
5.615230460921843303e+00	1.160254658270143011e+02
5.713426853707415098e+00	1.173414026139937505e+02
5.811623246492986006e+00	1.186238605540030022e+02
5.909819639278556913e+00	1.198739564719534485e+02
6.008016032064128709e+00	1.210927665110339149e+02
6.106212424849699616e+00	1.222813273018003741e+02
6.204408817635270523e+00	1.234406371652358416e+02
6.302605210420841431e+00	1.245716573360470676e+02
6.400801603206413226e+00	1.256753131947710216e+02
6.498997995991984133e+00	1.267524954992414905e+02
6.597194388777555041e+00	1.278040616076461333e+02
6.695390781563125948e+00	1.288308366868429573e+02
6.793587174348697744e+00	1.298336149008271718e+02
6.891783567134268651e+00	1.308131605752767257e+02
6.989979959919839558e+00	1.317702093349874986e+02
7.088176352705410466e+00	1.327054692117541208e+02
7.186372745490982261e+00	1.336196217208810140e+02
7.284569138276553169e+00	1.345133229050387627e+02
7.382765531062124076e+00	1.353872043446237967e+02
7.480961923847695871e+00	1.362418741341507484e+02
7.579158316633266779e+00	1.370779178245136620e+02
7.677354709418837686e+00	1.378958993312077723e+02
7.775551102204408593e+00	1.386963618088103658e+02
7.873747494989980389e+00	1.394798284921890570e+02
7.971943887775551296e+00	1.402468035050430331e+02
8.070140280561123092e+00	1.409977726364879516e+02
8.168336673346693999e+00	1.417332040864817486e+02
8.266533066132264906e+00	1.424535491809499774e+02
8.364729458917835814e+00	1.431592430575164769e+02
8.462925851703406721e+00	1.438507053227785377e+02
8.561122244488977628e+00	1.445283406820825576e+02
8.659318637274548536e+00	1.451925395427694525e+02
8.757515030060119443e+00	1.458436785918591170e+02
8.855711422845690350e+00	1.464821213491378842e+02
8.953907815631263034e+00	1.471082186966029042e+02
9.052104208416833941e+00	1.477223093852024647e+02
9.150300601202404849e+00	1.483247205197902474e+02
9.248496993987975756e+00	1.489157680231924417e+02
9.346693386773546663e+00	1.494957570802613702e+02
9.444889779559117571e+00	1.500649825627633902e+02
9.543086172344690254e+00	1.506237294359231669e+02
9.641282565130261162e+00	1.511722731474181955e+02
9.739478957915832069e+00	1.517108799995889683e+02
9.837675350701402976e+00	1.522398075056049720e+02
9.935871743486973884e+00	1.527593047302930245e+02
1.003406813627254479e+01	1.532696126163135659e+02
1.013226452905811570e+01	1.537709642963371266e+02
1.023046092184368661e+01	1.542635853918496878e+02
1.032865731462925929e+01	1.547476942991882822e+02
1.042685370741483020e+01	1.552235024633817488e+02
1.052505010020040110e+01	1.556912146403485906e+02
1.062324649298597201e+01	1.561510291479772548e+02
1.072144288577154292e+01	1.566031381065925245e+02
1.081963927855711383e+01	1.570477276692890598e+02
1.091783567134268473e+01	1.574849782425902731e+02
1.101603206412825742e+01	1.579150646978701218e+02
1.111422845691382832e+01	1.583381565739573205e+02
1.121242484969939923e+01	1.587544182713188832e+02
1.131062124248497014e+01	1.591640092382040734e+02
1.140881763527054105e+01	1.595670841491110536e+02
1.150701402805611195e+01	1.599637930759214441e+02
1.160521042084168286e+01	1.603542816520330803e+02
1.170340681362725377e+01	1.607386912298036350e+02
1.180160320641282645e+01	1.611171590316058939e+02
1.189979959919839736e+01	1.614898182947778196e+02
1.199799599198396827e+01	1.618567984107416464e+02
1.209619238476953917e+01	1.622182250585484269e+02
1.219438877755511008e+01	1.625742203330966049e+02
1.229258517034068099e+01	1.629249028682584708e+02
1.239078156312625190e+01	1.632703879551399666e+02
1.248897795591182458e+01	1.636107876556854990e+02
1.258717434869739549e+01	1.639462109118328499e+02
1.268537074148296639e+01	1.642767636504117945e+02
1.278356713426853730e+01	1.646025488839700301e+02
1.288176352705410821e+01	1.649236668077047909e+02
1.297995991983967912e+01	1.652402148926658185e+02
1.307815631262525002e+01	1.655522879753916357e+02
1.317635270541082093e+01	1.658599783441309228e+02
1.327454909819639362e+01	1.661633758217946593e+02
1.337274549098196452e+01	1.664625678457778122e+02
1.347094188376753543e+01	1.667576395447838138e+02
1.356913827655310634e+01	1.670486738127769115e+02
1.366733466933867724e+01	1.673357513801838934e+02
1.376553106212424815e+01	1.676189508824598136e+02
1.386372745490981906e+01	1.678983489261274826e+02
1.396192384769539174e+01	1.681740201523953715e+02
1.406012024048096265e+01	1.684460372984547689e+02
1.415831663326653356e+01	1.687144712565500697e+02
1.425651302605210446e+01	1.689793911309147347e+02
1.435470941883767537e+01	1.692408642926596940e+02
1.445290581162324628e+01	1.694989564326967582e+02
1.455110220440881719e+01	1.697537316127772158e+02
1.464929859719438809e+01	1.700052523147211048e+02
1.474749498997996078e+01	1.702535794879098887e+02
1.484569138276553169e+01	1.704987725951114044e+02
1.494388777555110259e+01	1.707408896567045815e+02
1.504208416833667350e+01	1.709799872933653830e+02
1.514028056112224441e+01	1.712161207672766352e+02
1.523847695390781531e+01	1.714493440219178808e+02
1.533667334669338622e+01	1.716797097204924967e+02
1.543486973947895891e+01	1.719072692830427229e+02
1.553306613226452981e+01	1.721320729223064347e+02
1.563126252505010072e+01	1.723541696783613588e+02
1.572945891783567163e+01	1.725736074521049943e+02
1.582765531062124253e+01	1.727904330376141502e+02
1.592585170340681344e+01	1.730046921534265607e+02
1.602404809619238435e+01	1.732164294727862170e+02
1.612224448897795526e+01	1.734256886528904715e+02
1.622044088176352972e+01	1.736325123631769145e+02
1.631863727454909707e+01	1.738369423126861477e+02
1.641683366733467153e+01	1.740390192765342761e+02
1.651503006012023889e+01	1.742387831215289680e+02
1.661322645290581335e+01	1.744362728309595241e+02
1.671142284569138070e+01	1.746315265285923886e+02
1.680961923847695516e+01	1.748245815019004112e+02
1.690781563126252607e+01	1.750154742245545947e+02
1.700601202404809698e+01	1.752042403782038775e+02
1.710420841683366788e+01	1.753909148735697556e+02
1.720240480961923879e+01	1.755755318708799848e+02
1.730060120240480970e+01	1.757581247996647846e+02
1.739879759519038060e+01	1.759387263779384512e+02
1.749699398797595151e+01	1.761173686307884338e+02
1.759519038076152242e+01	1.762940829083923120e+02
1.769338677354709333e+01	1.764688999034834467e+02
1.779158316633266423e+01	1.766418496682834132e+02
1.788977955911823514e+01	1.768129616309216772e+02
1.798797595190380605e+01	1.769822646113584597e+02
1.808617234468938051e+01	1.771497868368290654e+02
1.818436873747495142e+01	1.773155559568261026e+02
1.828256513026052232e+01	1.774795990576344309e+02
1.838076152304609323e+01	1.776419426764357468e+02
1.847895791583166414e+01	1.778026128149960243e+02
1.857715430861723505e+01	1.779616349529505896e+02
1.867535070140280595e+01	1.781190340607001303e+02
1.877354709418837686e+01	1.782748346119309701e+02
1.887174348697394777e+01	1.784290605957719436e+02
1.896993987975951867e+01	1.785817355286000918e+02
1.906813627254508958e+01	1.787328824655066057e+02
1.916633266533066049e+01	1.788825240114343842e+02
1.926452905811623140e+01	1.790306823319982357e+02
1.936272545090180230e+01	1.791773791639975570e+02
1.946092184368737321e+01	1.793226358256317781e+02
1.955911823647294767e+01	1.794664732264290024e+02
1.965731462925851858e+01	1.796089118768948083e+02
1.975551102204408949e+01	1.797499718978935164e+02
1.985370741482966039e+01	1.798896730297676072e+02
1.995190380761523130e+01	1.800280346412052381e+02
2.005010020040080221e+01	1.801650757378630772e+02
2.014829659318637312e+01	1.803008149707531231e+02
2.024649298597194402e+01	1.804352706443997931e+02
2.034468937875751493e+01	1.805684607247754059e+02
2.044288577154308584e+01	1.807004028470203991e+02
2.054108216432865675e+01	1.808311143229555285e+02
2.063927855711422765e+01	1.809606121483919310e+02
2.073747494989979856e+01	1.810889130102461024e+02
2.083567134268536947e+01	1.812160332934643350e+02
2.093386773547094037e+01	1.813419890877644036e+02
2.103206412825651483e+01	1.814667961941982526e+02
2.113026052104208574e+01	1.815904701315427303e+02
2.122845691382765665e+01	1.817130261425220397e+02
2.132665330661322756e+01	1.818344791998680137e+02
2.142484969939879846e+01	1.819548440122233046e+02
2.152304609218436937e+01	1.820741350298905843e+02
2.162124248496994028e+01	1.821923664504346903e+02
2.171943887775551119e+01	1.823095522241399351e+02
2.181763527054108209e+01	1.824257060593283200e+02
2.191583166332665300e+01	1.825408414275416646e+02
2.201402805611222391e+01	1.826549715685929698e+02
2.211222444889779482e+01	1.827681094954892558e+02
2.221042084168336572e+01	1.828802679992309947e+02
2.230861723446893663e+01	1.829914596534907787e+02
2.240681362725450754e+01	1.831016968191754302e+02
2.250501002004008200e+01	1.832109916488741135e+02
2.260320641282565290e+01	1.833193560911964539e+02
2.270140280561122381e+01	1.834268018950038197e+02
2.279959919839679472e+01	1.835333406135356142e+02
2.289779559118236563e+01	1.836389836084354954e+02
2.299599198396793653e+01	1.837437420536784884e+02
2.309418837675350744e+01	1.838476269394030282e+02
2.319238476953907835e+01	1.839506490756501194e+02
2.329058116232464926e+01	1.840528190960119730e+02
2.338877755511022016e+01	1.841541474611935030e+02
2.348697394789579107e+01	1.842546444624875903e+02
2.358517034068136198e+01	1.843543202251686068e+02
2.368336673346693289e+01	1.844531847118041696e+02
2.378156312625250379e+01	1.845512477254891337e+02
2.387975951903807470e+01	1.846485189130031586e+02
2.397795591182364916e+01	1.847450077678937816e+02
2.407615230460922007e+01	1.848407236334875279e+02
2.417434869739479097e+01	1.849356757058309029e+02
2.427254509018036188e+01	1.850298730365624351e+02
2.437074148296593279e+01	1.851233245357190924e+02
2.446893787575150370e+01	1.852160389744770725e+02
2.456713426853707460e+01	1.853080249878298389e+02
2.466533066132264551e+01	1.853992910772053904e+02
2.476352705410821642e+01	1.854898456130226236e+02
2.486172344689378733e+01	1.855796968371909372e+02
2.495991983967935823e+01	1.856688528655517700e+02
2.505811623246492914e+01	1.857573216902663944e+02
2.515631262525050005e+01	1.858451111821486563e+02
2.525450901803607096e+01	1.859322290929466135e+02
2.535270541082164186e+01	1.860186830575723889e+02
2.545090180360721632e+01	1.861044805962825137e+02
2.554909819639278723e+01	1.861896291168104653e+02
2.564729458917835814e+01	1.862741359164513426e+02
2.574549098196392904e+01	1.863580081841008109e+02
2.584368737474949995e+01	1.864412530022498515e+02
2.594188376753507086e+01	1.865238773489350308e+02
2.604008016032064177e+01	1.866058880996468474e+02
2.613827655310621267e+01	1.866872920291965841e+02
2.623647294589178358e+01	1.867680958135423452e+02
2.633466933867735449e+01	1.868483060315761577e+02
2.643286573146292540e+01	1.869279291668724738e+02
2.653106212424849630e+01	1.870069716093992440e+02
2.662925851703406721e+01	1.870854396571922962e+02
2.672745490981963812e+01	1.871633395179945012e+02
2.682565130260520903e+01	1.872406773108595246e+02
2.692384769539078349e+01	1.873174590677224955e+02
2.702204408817635439e+01	1.873936907349369108e+02
2.712024048096192530e+01	1.874693781747795072e+02
2.721843687374749621e+01	1.875445271669240128e+02
2.731663326653306711e+01	1.876191434098833781e+02
2.741482965931863802e+01	1.876932325224227895e+02
2.751302605210420893e+01	1.877668000449432668e+02
2.761122244488977984e+01	1.878398514408360995e+02
2.770941883767535074e+01	1.879123920978102547e+02
2.780761523046092165e+01	1.879844273291921866e+02
2.790581162324649256e+01	1.880559623751987885e+02
2.800400801603206347e+01	1.881270024041849638e+02
2.810220440881763437e+01	1.881975525138655314e+02
2.820040080160320528e+01	1.882676177325123490e+02
2.829859719438877619e+01	1.883372030201276743e+02
2.839679358717435065e+01	1.884063132695933405e+02
2.849498997995992156e+01	1.884749533077973354e+02
2.859318637274549246e+01	1.885431278967380422e+02
2.869138276553106337e+01	1.886108417346055717e+02
2.878957915831663428e+01	1.886780994568429151e+02
2.888777555110220518e+01	1.887449056371849849e+02
2.898597194388777609e+01	1.888112647886777893e+02
2.908416833667334700e+01	1.888771813646775968e+02
2.918236472945891791e+01	1.889426597598296667e+02
2.928056112224448881e+01	1.890077043110293005e+02
2.937875751503005972e+01	1.890723192983627996e+02
2.947695390781563063e+01	1.891365089460309434e+02
2.957515030060120154e+01	1.892002774232543345e+02
2.967334669338677244e+01	1.892636288451614348e+02
2.977154308617234335e+01	1.893265672736591227e+02
2.986973947895791781e+01	1.893890967182870213e+02
2.996793587174348872e+01	1.894512211370553700e+02
3.006613226452905963e+01	1.895129444372666967e+02
3.016432865731463053e+01	1.895742704763221695e+02
3.026252505010020144e+01	1.896352030625123462e+02
3.036072144288577235e+01	1.896957459557935692e+02
3.045891783567134325e+01	1.897559028685488727e+02
3.055711422845691416e+01	1.898156774663356146e+02
3.065531062124248507e+01	1.898750733686181604e+02
3.075350701402805598e+01	1.899340941494876915e+02
3.085170340681362688e+01	1.899927433383680295e+02
3.094989979959919779e+01	1.900510244207088419e+02
3.104809619238476870e+01	1.901089408386656032e+02
3.114629258517033961e+01	1.901664959917673059e+02
3.124448897795591051e+01	1.902236932375718936e+02
3.134268537074148497e+01	1.902805358923096151e+02
3.144088176352705588e+01	1.903370272315144405e+02
3.153907815631262679e+01	1.903931704906443372e+02
3.163727454909819770e+01	1.904489688656901478e+02
3.173547094188376860e+01	1.905044255137731568e+02
3.183366733466933951e+01	1.905595435537324533e+02
3.193186372745491042e+01	1.906143260667009258e+02
3.203006012024047777e+01	1.906687760966718486e+02
3.212825651302605223e+01	1.907228966510546115e+02
3.222645290581162669e+01	1.907766907012205877e+02
3.232464929859719405e+01	1.908301611830397917e+02
3.242284569138276140e+01	1.908833109974075910e+02
3.252104208416833586e+01	1.909361430107620663e+02
3.261923847695391032e+01	1.909886600555925327e+02
3.271743486973947768e+01	1.910408649309389659e+02
3.281563126252505214e+01	1.910927604028823339e+02
3.291382765531062660e+01	1.911443492050272539e+02
3.301202404809619395e+01	1.911956340389750721e+02
3.311022044088176131e+01	1.912466175747898092e+02
3.320841683366733577e+01	1.912973024514551241e+02
3.330661322645290312e+01	1.913476912773239178e+02
3.340480961923847758e+01	1.913977866305600912e+02
3.350300601202404494e+01	1.914475910595726020e+02
3.360120240480961940e+01	1.914971070834419891e+02
3.369939879759519386e+01	1.915463371923399905e+02
3.379759519038076121e+01	1.915952838479414595e+02
3.389579158316633567e+01	1.916439494838298003e+02
3.399398797595190302e+01	1.916923365058953266e+02
3.409218436873747748e+01	1.917404472927264578e+02
3.419038076152304484e+01	1.917882841959951463e+02
3.428857715430861930e+01	1.918358495408352837e+02
3.438677354709418665e+01	1.918831456262144570e+02
3.448496993987976111e+01	1.919301747253007022e+02
3.458316633266532847e+01	1.919769390858213569e+02
3.468136272545090293e+01	1.920234409304177063e+02
3.477955911823647028e+01	1.920696824569924956e+02
3.487775551102204474e+01	1.921156658390522693e+02
3.497595190380761210e+01	1.921613932260438844e+02
3.507414829659318656e+01	1.922068667436857652e+02
3.517234468937876102e+01	1.922520884942931900e+02
3.527054108216432837e+01	1.922970605570984901e+02
3.536873747494990283e+01	1.923417849885666158e+02
3.546693386773547019e+01	1.923862638227043078e+02
3.556513026052104465e+01	1.924304990713656025e+02
3.566332665330661200e+01	1.924744927245513111e+02
3.576152304609218646e+01	1.925182467507043498e+02
3.585971943887775382e+01	1.925617630969999539e+02
3.595791583166332828e+01	1.926050436896313158e+02
3.605611222444889563e+01	1.926480904340907330e+02
3.615430861723447009e+01	1.926909052154463495e+02
3.625250501002003745e+01	1.927334898986138114e+02
3.635070140280561191e+01	1.927758463286246808e+02
3.644889779559117926e+01	1.928179763308898771e+02
3.654709418837675372e+01	1.928598817114587973e+02
3.664529058116232818e+01	1.929015642572751403e+02
3.674348697394789554e+01	1.929430257364278418e+02
3.684168336673347000e+01	1.929842678983984570e+02
3.693987975951903735e+01	1.930252924743050187e+02
3.703807615230461181e+01	1.930661011771412916e+02
3.713627254509017916e+01	1.931066957020129280e+02
3.723446893787575362e+01	1.931470777263698153e+02
3.733266533066132098e+01	1.931872489102345298e+02
3.743086172344689544e+01	1.932272108964279198e+02
3.752905811623246279e+01	1.932669653107901979e+02
3.762725450901803725e+01	1.933065137623997884e+02
3.772545090180360461e+01	1.933458578437877975e+02
3.782364729458917907e+01	1.933849991311498684e+02
3.792184368737474642e+01	1.934239391845545981e+02
3.802004008016032088e+01	1.934626795481485999e+02
3.811823647294589534e+01	1.935012217503588943e+02
3.821643286573146270e+01	1.935395673040914346e+02
3.831462925851703716e+01	1.935777177069277855e+02
3.841282565130260451e+01	1.936156744413177364e+02
3.851102204408817897e+01	1.936534389747695570e+02
3.860921843687374633e+01	1.936910127600376086e+02
3.870741482965932079e+01	1.937283972353063177e+02
3.880561122244488814e+01	1.937655938243725871e+02
3.890380761523046260e+01	1.938026039368241129e+02
3.900200400801602996e+01	1.938394289682165095e+02
3.910020040080160442e+01	1.938760703002465675e+02
3.919839679358717177e+01	1.939125293009236657e+02
3.929659318637274623e+01	1.939488073247384250e+02
3.939478957915831359e+01	1.939849057128288337e+02
3.949298597194388805e+01	1.940208257931442120e+02
3.959118236472946251e+01	1.940565688806062496e+02
3.968937875751502986e+01	1.940921362772682528e+02
3.978757515030060432e+01	1.941275292724717758e+02
3.988577154308617168e+01	1.941627491430009798e+02
3.998396793587174614e+01	1.941977971532348306e+02
4.008216432865731349e+01	1.942326745552970806e+02
4.018036072144288795e+01	1.942673825892039758e+02
4.027855711422845530e+01	1.943019224830099745e+02
4.037675350701402976e+01	1.943362954529514184e+02
4.047494989979959712e+01	1.943705027035878459e+02
4.057314629258517158e+01	1.944045454279417129e+02
4.067134268537073893e+01	1.944384248076355846e+02
4.076953907815631339e+01	1.944721420130281331e+02
4.086773547094188075e+01	1.945056982033473219e+02
4.096593186372745521e+01	1.945390945268223106e+02
4.106412825651302967e+01	1.945723321208133711e+02
4.116232464929859702e+01	1.946054121119398417e+02
4.126052104208417148e+01	1.946383356162063478e+02
4.135871743486973884e+01	1.946711037391272612e+02
4.145691382765531330e+01	1.947037175758494811e+02
4.155511022044088065e+01	1.947361782112734261e+02
4.165330661322645511e+01	1.947684867201721204e+02
4.175150300601202247e+01	1.948006441673093150e+02
4.184969939879759693e+01	1.948326516075549080e+02
4.194789579158316428e+01	1.948645100859999673e+02
4.204609218436873874e+01	1.948962206380690816e+02
4.214428857715430610e+01	1.949277842896318589e+02
4.224248496993988056e+01	1.949592020571127193e+02
4.234068136272544791e+01	1.949904749475987842e+02
4.243887775551102237e+01	1.950216039589473098e+02
4.253707414829659683e+01	1.950525900798901091e+02
4.263527054108216419e+01	1.950834342901383707e+02
4.273346693386773865e+01	1.951141375604842381e+02
4.283166332665330600e+01	1.951447008529023037e+02
4.292985971943888046e+01	1.951751251206493691e+02
4.302805611222444782e+01	1.952054113083627556e+02
4.312625250501002228e+01	1.952355603521568810e+02
4.322444889779558963e+01	1.952655731797196381e+02
4.332264529058116409e+01	1.952954507104064703e+02
4.342084168336673144e+01	1.953251938553334526e+02
4.351903807615230590e+01	1.953548035174694348e+02
4.361723446893787326e+01	1.953842805917265935e+02
4.371543086172344772e+01	1.954136259650500733e+02
4.381362725450901507e+01	1.954428405165060667e+02
4.391182364729458953e+01	1.954719251173691248e+02
4.401002004008016399e+01	1.955008806312079912e+02
4.410821643286573135e+01	1.955297079139706398e+02
4.420641282565130581e+01	1.955584078140678344e+02
4.430460921843687316e+01	1.955869811724558076e+02
4.440280561122244762e+01	1.956154288227178881e+02
4.450100200400801498e+01	1.956437515911447349e+02
4.459919839679358944e+01	1.956719502968141740e+02
4.469739478957915679e+01	1.957000257516691022e+02
4.479559118236473125e+01	1.957279787605954482e+02
4.489378757515029861e+01	1.957558101214978876e+02
4.499198396793587307e+01	1.957835206253758713e+02
4.509018036072144042e+01	1.958111110563974648e+02
4.518837675350701488e+01	1.958385821919732734e+02
4.528657314629258224e+01	1.958659348028286900e+02
4.538476953907815670e+01	1.958931696530754323e+02
4.548296593186373116e+01	1.959202875002824840e+02
4.558116232464929851e+01	1.959472890955456137e+02
4.567935871743487297e+01	1.959741751835563832e+02
4.577755511022044033e+01	1.960009465026699331e+02
4.587575150300601479e+01	1.960276037849724560e+02
4.597394789579158214e+01	1.960541477563470494e+02
4.607214428857715660e+01	1.960805791365396828e+02
4.617034068136272396e+01	1.961068986392234024e+02
4.626853707414829842e+01	1.961331069720622509e+02
4.636673346693386577e+01	1.961592048367743928e+02
4.646492985971944023e+01	1.961851929291942156e+02
4.656312625250500759e+01	1.962110719393336353e+02
4.666132264529058205e+01	1.962368425514430612e+02
4.675951903807614940e+01	1.962625054440713086e+02
4.685771543086172386e+01	1.962880612901242898e+02
4.695591182364729832e+01	1.963135107569240176e+02
4.705410821643286567e+01	1.963388545062661592e+02
4.715230460921844013e+01	1.963640931944767374e+02
4.725050100200400749e+01	1.963892274724688036e+02
4.734869739478958195e+01	1.964142579857979740e+02
4.744689378757514930e+01	1.964391853747169705e+02
4.754509018036072376e+01	1.964640102742304464e+02
4.764328657314629112e+01	1.964887333141483055e+02
4.774148296593186558e+01	1.965133551191383674e+02
4.783967935871743293e+01	1.965378763087791185e+02
4.793787575150300739e+01	1.965622974976111550e+02
4.803607214428857475e+01	1.965866192951879441e+02
4.813426853707414921e+01	1.966108423061268695e+02
4.823246492985971656e+01	1.966349671301583157e+02
4.833066132264529102e+01	1.966589943621752923e+02
4.842885771543086548e+01	1.966829245922820348e+02
4.852705410821643284e+01	1.967067584058416969e+02
4.862525050100200730e+01	1.967304963835242972e+02
4.872344689378757465e+01	1.967541391013529903e+02
4.882164328657314911e+01	1.967776871307510191e+02
4.891983967935871647e+01	1.968011410385869340e+02
4.901803607214429093e+01	1.968245013872201810e+02
4.911623246492985828e+01	1.968477687345455251e+02
4.921442885771543274e+01	1.968709436340374737e+02
4.931262525050100010e+01	1.968940266347935619e+02
4.941082164328657456e+01	1.969170182815777252e+02
4.950901803607214191e+01	1.969399191148631587e+02
4.960721442885771637e+01	1.969627296708735287e+02
4.970541082164328373e+01	1.969854504816256338e+02
4.980360721442885819e+01	1.970080820749699058e+02
4.990180360721443265e+01	1.970306249746310812e+02
5.000000000000000000e+01	1.970530797002487589e+02
