Variables = mach, cp 
 zone t=Shockwave i= 200 f=point
5.000000000000000000e-01	7.254659412122647311e+00
5.477386934673367236e-01	4.036908567697494732e+00
5.954773869346733361e-01	2.571879083541110944e+00
6.432160804020100597e-01	1.858986760045125308e+00
6.909547738693466723e-01	1.502967041157325712e+00
7.386934673366833959e-01	1.328303086025099722e+00
7.864321608040201195e-01	1.250139867185628528e+00
8.341708542713568431e-01	1.224772744485578047e+00
8.819095477386934556e-01	1.228594902988128013e+00
9.296482412060300682e-01	1.248395487703487072e+00
9.773869346733667918e-01	1.276591993228620492e+00
1.025125628140703515e+00	1.308762016344665380e+00
1.072864321608040239e+00	1.342309477867979828e+00
1.120603015075376963e+00	1.375717841886645143e+00
1.168341708542713686e+00	1.408119472834928221e+00
1.216080402010050188e+00	1.439041144365607705e+00
1.263819095477386911e+00	1.468250591356693446e+00
1.311557788944723635e+00	1.495662480019262608e+00
1.359296482412060136e+00	1.521280069145913405e+00
1.407035175879396860e+00	1.545158701374876875e+00
1.454773869346733584e+00	1.567382851020096224e+00
1.502512562814070307e+00	1.588051696520328626e+00
1.550251256281407031e+00	1.607270106488506434e+00
1.597989949748743754e+00	1.625143088460505814e+00
1.645728643216080478e+00	1.641772461986845233e+00
1.693467336683416979e+00	1.657254961954725214e+00
1.741206030150753703e+00	1.671681258689839078e+00
1.788944723618090427e+00	1.685135560778280306e+00
1.836683417085427150e+00	1.697695582374680656e+00
1.884422110552763874e+00	1.709432732194756221e+00
1.932160804020100375e+00	1.720412430866974818e+00
1.979899497487437099e+00	1.730694495951472289e+00
2.027638190954773822e+00	1.740333555543442490e+00
2.075376884422110546e+00	1.749379465716611293e+00
2.123115577889447270e+00	1.757877716575905858e+00
2.170854271356783549e+00	1.765869817983307888e+00
2.218592964824120273e+00	1.773393660161106666e+00
2.266331658291456996e+00	1.780483847070240877e+00
2.314070351758793720e+00	1.787172002184201025e+00
2.361809045226130443e+00	1.793487047349761054e+00
2.409547738693467167e+00	1.799455456061449743e+00
2.457286432160803891e+00	1.805101482823430858e+00
2.505025125628140614e+00	1.810447370429569824e+00
2.552763819095477338e+00	1.815513537027061641e+00
2.600502512562814061e+00	1.820318744787453147e+00
2.648241206030150785e+00	1.824880251920748764e+00
2.695979899497487509e+00	1.829213949655156046e+00
2.743718592964824232e+00	1.833334485679740666e+00
2.791457286432160956e+00	1.837255375419101444e+00
2.839195979899497235e+00	1.840989102383252307e+00
2.886934673366833959e+00	1.844547208716351028e+00
2.934673366834170682e+00	1.847940376955330199e+00
2.982412060301507406e+00	1.851178503906641515e+00
3.030150753768844130e+00	1.854270767454256674e+00
3.077889447236180853e+00	1.857225687026828220e+00
3.125628140703517577e+00	1.860051178374429792e+00
3.173366834170854300e+00	1.862754603235783790e+00
3.221105527638191024e+00	1.865342814414934214e+00
3.268844221105527748e+00	1.867822196730528850e+00
3.316582914572864027e+00	1.870198704251450739e+00
3.364321608040200751e+00	1.872477894188408376e+00
3.412060301507537474e+00	1.874664957771580376e+00
3.459798994974874198e+00	1.876764748409756933e+00
3.507537688442210921e+00	1.878781807394940495e+00
3.555276381909547645e+00	1.880720387389031245e+00
3.603015075376884369e+00	1.882584473904307387e+00
3.650753768844221092e+00	1.884377804967670489e+00
3.698492462311557816e+00	1.886103889139081558e+00
3.746231155778894539e+00	1.887766022037102864e+00
3.793969849246231263e+00	1.889367301509217389e+00
3.841708542713567542e+00	1.890910641570502815e+00
3.889447236180904266e+00	1.892398785222124680e+00
3.937185929648240990e+00	1.893834316249981553e+00
3.984924623115577713e+00	1.895219670094036468e+00
4.032663316582913993e+00	1.896557143870066131e+00
4.080402010050251604e+00	1.897848905617662840e+00
4.128140703517587440e+00	1.899097002841276804e+00
4.175879396984925052e+00	1.900303370404736292e+00
4.223618090452260887e+00	1.901469837834080634e+00
4.271356783919598499e+00	1.902598136078282653e+00
4.319095477386934334e+00	1.903689903772986414e+00
4.366834170854271058e+00	1.904746693048225747e+00
4.414572864321607781e+00	1.905769974917334020e+00
4.462311557788944505e+00	1.906761144280927800e+00
4.510050251256281229e+00	1.907721524576821759e+00
4.557788944723617952e+00	1.908652372104025163e+00
4.605527638190954676e+00	1.909554880046435699e+00
4.653266331658291399e+00	1.910430182219713613e+00
4.701005025125628123e+00	1.911279356562686438e+00
4.748743718592964846e+00	1.912103428392939231e+00
4.796482412060301570e+00	1.912903373444424515e+00
4.844221105527638294e+00	1.913680120703549203e+00
4.891959798994975017e+00	1.914434555058804888e+00
4.939698492462311741e+00	1.915167519777712268e+00
4.987437185929648464e+00	1.915879818823730485e+00
5.035175879396985188e+00	1.916572219024825552e+00
5.082914572864321912e+00	1.917245452104370473e+00
5.130653266331657747e+00	1.917900216584194739e+00
5.178391959798994471e+00	1.918537179568949425e+00
5.226130653266331194e+00	1.919156978419986004e+00
5.273869346733667918e+00	1.919760222326614585e+00
5.321608040201004641e+00	1.920347493781710879e+00
5.369346733668341365e+00	1.920919349968315260e+00
5.417085427135678088e+00	1.921476324063273067e+00
5.464824120603014812e+00	1.922018926463464839e+00
5.512562814070351536e+00	1.922547645939902017e+00
5.560301507537688259e+00	1.923062950724349074e+00
5.608040201005024983e+00	1.923565289533097467e+00
5.655778894472361706e+00	1.924055092531818056e+00
5.703517587939698430e+00	1.924532772245460821e+00
5.751256281407035154e+00	1.924998724416646434e+00
5.798994974874371877e+00	1.925453328815911025e+00
5.846733668341708601e+00	1.925896950006751318e+00
5.894472361809045324e+00	1.926329938068510605e+00
5.942211055276382048e+00	1.926752629279486539e+00
5.989949748743718771e+00	1.927165346762913289e+00
6.037688442211055495e+00	1.927568401098071815e+00
6.085427135678392219e+00	1.927962090898565295e+00
6.133165829145728054e+00	1.928346703359872460e+00
6.180904522613064778e+00	1.928722514777931885e+00
6.228643216080401501e+00	1.929089791040558888e+00
6.276381909547738225e+00	1.929448788093240053e+00
6.324120603015074948e+00	1.929799752380903177e+00
6.371859296482411672e+00	1.930142921266930767e+00
6.419597989949748396e+00	1.930478523430926074e+00
6.467336683417085119e+00	1.930806779246269089e+00
6.515075376884421843e+00	1.931127901138727676e+00
6.562814070351758566e+00	1.931442093927214554e+00
6.610552763819095290e+00	1.931749555147592279e+00
6.658291457286432014e+00	1.932050475360610697e+00
6.706030150753768737e+00	1.932345038444762020e+00
6.753768844221105461e+00	1.932633421874906388e+00
6.801507537688442184e+00	1.932915796987523027e+00
6.849246231155778908e+00	1.933192329233196727e+00
6.896984924623115631e+00	1.933463178417117678e+00
6.944723618090452355e+00	1.933728498928251049e+00
6.992462311557789079e+00	1.933988439957685657e+00
7.040201005025125802e+00	1.934243145706845191e+00
7.087939698492462526e+00	1.934492755586056711e+00
7.135678391959798361e+00	1.934737404403939154e+00
7.183417085427135085e+00	1.934977222548176057e+00
7.231155778894471808e+00	1.935212336158040225e+00
7.278894472361808532e+00	1.935442867289143276e+00
7.326633165829145256e+00	1.935668934070791103e+00
7.374371859296481979e+00	1.935890650856324058e+00
7.422110552763818703e+00	1.936108128366786030e+00
7.469849246231155426e+00	1.936321473828286122e+00
7.517587939698492150e+00	1.936530791103325155e+00
7.565326633165828873e+00	1.936736180816437392e+00
7.613065326633165597e+00	1.936937740474355074e+00
7.660804020100502321e+00	1.937135564581082825e+00
7.708542713567839044e+00	1.937329744747960714e+00
7.756281407035175768e+00	1.937520369799166087e+00
7.804020100502512491e+00	1.937707525872647052e+00
7.851758793969849215e+00	1.937891296516919937e+00
7.899497487437185939e+00	1.938071762783766028e+00
7.947236180904522662e+00	1.938249003317101371e+00
7.994974874371859386e+00	1.938423094438215033e+00
8.042713567839196998e+00	1.938594110227454426e+00
8.090452261306532833e+00	1.938762122602633919e+00
8.138190954773868668e+00	1.938927201394253119e+00
8.185929648241206280e+00	1.939089414417642709e+00
8.233668341708542115e+00	1.939248827542304321e+00
8.281407035175877951e+00	1.939405504758404009e+00
8.329145728643215563e+00	1.939559508240686680e+00
8.376884422110553174e+00	1.939710898409842121e+00
8.424623115577889010e+00	1.939859733991487367e+00
8.472361809045224845e+00	1.940006072072856025e+00
8.520100502512562457e+00	1.940149968157242499e+00
8.567839195979900069e+00	1.940291476216412070e+00
8.615577889447235904e+00	1.940430648740988140e+00
8.663316582914571740e+00	1.940567536788861958e+00
8.711055276381909351e+00	1.940702190031855734e+00
8.758793969849245187e+00	1.940834656800530578e+00
8.806532663316582799e+00	1.940964984127429016e+00
8.854271356783918634e+00	1.941093217788585346e+00
8.902010050251256246e+00	1.941219402343559386e+00
8.949748743718592081e+00	1.941343581174002741e+00
8.997487437185929693e+00	1.941465796520768672e+00
9.045226130653265528e+00	1.941586089519693914e+00
9.092964824120603140e+00	1.941704500236059783e+00
9.140703517587938975e+00	1.941821067697816927e+00
9.188442211055276587e+00	1.941935829927633916e+00
9.236180904522612423e+00	1.942048823973761218e+00
9.283919597989950034e+00	1.942160085939820924e+00
9.331658291457285870e+00	1.942269651013538656e+00
9.379396984924623482e+00	1.942377553494430087e+00
9.427135678391959317e+00	1.942483826820593729e+00
9.474874371859296929e+00	1.942588503594463445e+00
9.522613065326632764e+00	1.942691615607761824e+00
9.570351758793970376e+00	1.942793193865531176e+00
9.618090452261306211e+00	1.942893268609356738e+00
9.665829145728643823e+00	1.942991869339791178e+00
9.713567839195979658e+00	1.943089024838033030e+00
9.761306532663315494e+00	1.943184763186835307e+00
9.809045226130653106e+00	1.943279111790751079e+00
9.856783919597988941e+00	1.943372097395648090e+00
9.904522613065326553e+00	1.943463746107621182e+00
9.952261306532662388e+00	1.943554083411243694e+00
1.000000000000000000e+01	1.943643134187231558e+00
